LAMMPS data file via write_data, version 4 Jan 2019, timestep = 230000

3000 atoms
1 atom types

0.0000000000000000e+00 4.4793500000000002e+01 xlo xhi
0.0000000000000000e+00 4.4793500000000002e+01 ylo yhi
0.0000000000000000e+00 4.4793500000000002e+01 zlo zhi

Masses

1 18.0154

Atoms # full

959 959 1 0.0000000000000000e+00 1.0828570649374013e+01 5.7010533946480368e+00 9.8217967400799147e+00 -1 1 -1
366 366 1 0.0000000000000000e+00 7.3241593185791531e+00 7.4714538815302527e+00 9.2402286546509895e+00 0 -1 2
525 525 1 0.0000000000000000e+00 1.6936038603365087e+00 2.1964507935462305e+00 3.0153170744441693e-01 0 1 1
332 332 1 0.0000000000000000e+00 4.1862369280449734e+00 3.4229497412182948e+00 8.7816803353207469e+00 0 1 2
962 962 1 0.0000000000000000e+00 2.3041048760244394e+00 3.1519130391682189e+00 1.0616300960285628e+01 1 1 1
2171 2171 1 0.0000000000000000e+00 1.0896059283007735e+00 1.0265679773915897e+01 8.6411250233936290e+00 1 0 0
1521 1521 1 0.0000000000000000e+00 6.8582027645880137e+00 1.0185330847019825e+01 8.7685765980722437e+00 -1 0 0
721 721 1 0.0000000000000000e+00 6.8613027888936573e+00 7.3109952921363845e+00 2.8755914616094846e-01 1 1 -1
650 650 1 0.0000000000000000e+00 1.3067110019187234e+00 5.9444720998940848e-01 1.0739176123147351e+01 0 0 -1
2394 2394 1 0.0000000000000000e+00 8.8660993119341427e+00 5.6364643925811220e-01 1.1045634630302152e+01 0 -1 -1
358 358 1 0.0000000000000000e+00 5.0189905027871573e+00 6.0763609947556736e+00 5.5963345428398039e+00 0 0 1
122 122 1 0.0000000000000000e+00 1.3318626819234656e+00 5.7355968713628815e+00 1.0861191353992453e+01 0 1 1
852 852 1 0.0000000000000000e+00 3.0687169355378061e+00 4.8862758196006144e+00 3.4105976165076330e+00 0 1 2
865 865 1 0.0000000000000000e+00 7.5305410067973693e+00 8.3803880066075447e+00 4.0623376686116943e+00 0 1 0
1876 1876 1 0.0000000000000000e+00 8.2591006233079678e-01 7.4195316346623770e+00 8.0824284681971186e+00 1 1 0
1835 1835 1 0.0000000000000000e+00 5.3071234011325084e+00 5.2905722245974065e+00 1.6436367764819073e+00 1 0 1
2573 2573 1 0.0000000000000000e+00 3.2442097908003280e+00 6.6268845933598781e+00 9.2508585052670895e+00 0 1 -1
2636 2636 1 0.0000000000000000e+00 1.1437910587923454e+01 8.0268275493672014e+00 7.0482802575655699e+00 -1 -1 -1
2547 2547 1 0.0000000000000000e+00 4.7226719615315860e+00 2.5462939914810607e+00 3.6362888180593549e+00 2 0 1
286 286 1 0.0000000000000000e+00 3.6624407832847705e+00 9.7570308826747816e+00 2.1915673214340559e+00 0 -1 1
516 516 1 0.0000000000000000e+00 1.3546926489105843e+01 2.7407264332368264e+00 8.3364865577943341e+00 1 -1 1
671 671 1 0.0000000000000000e+00 3.2744641460174320e+00 7.5790702796695424e+00 3.8236384185738506e+00 1 0 1
1459 1459 1 0.0000000000000000e+00 7.3534761636993782e+00 2.8652414567251516e+00 5.1409069074273637e+00 1 1 -1
2290 2290 1 0.0000000000000000e+00 1.0589769053881877e+00 1.0348570668379750e+01 1.9216941223900976e+00 -1 1 1
38 38 1 0.0000000000000000e+00 4.1041638109600918e+00 3.0326353955017255e-01 5.2047626304958969e+00 0 1 1
360 360 1 0.0000000000000000e+00 7.4694455607564016e+00 5.3008413108592372e+00 3.6028591552379772e+00 0 -1 1
862 862 1 0.0000000000000000e+00 6.6311033191399105e+00 4.5548704255314947e+00 9.3216150987318187e+00 1 1 -1
2034 2034 1 0.0000000000000000e+00 5.4218210333512120e+00 8.0727337391651108e+00 7.4552711110309939e+00 -1 0 2
1047 1047 1 0.0000000000000000e+00 1.0952796876113466e+01 1.8265354024384231e+00 6.4411140505468198e+00 1 1 0
2740 2740 1 0.0000000000000000e+00 1.6852976608287069e+00 1.6451627237112474e+00 2.8315848957724699e+00 0 2 -1
2390 2390 1 0.0000000000000000e+00 6.7446414813051154e+00 6.1314205553448942e-01 2.8258512680294463e+00 0 1 2
320 320 1 0.0000000000000000e+00 1.4431341894149263e+01 5.2736923888533793e+00 8.2686068612353765e+00 -1 -1 0
555 555 1 0.0000000000000000e+00 4.0844440288257582e+00 1.1015974740108568e+01 7.1517137854260344e+00 1 -1 0
2448 2448 1 0.0000000000000000e+00 8.6824279316375534e+00 8.3019221607458604e+00 6.7372571279915991e+00 0 2 1
1779 1779 1 0.0000000000000000e+00 8.3143750632365929e+00 1.1358574771597743e+00 6.8618071061644361e+00 0 2 -1
210 210 1 0.0000000000000000e+00 1.2802670724806752e+01 7.4598166469155176e+00 4.3882554198257315e+00 1 0 0
1837 1837 1 0.0000000000000000e+00 9.2629657713459839e+00 3.6706403951920072e+00 6.1381414293310388e-01 0 0 -2
2055 2055 1 0.0000000000000000e+00 1.0393235950548146e+01 1.0016082179908482e+01 5.3614156816589862e+00 1 2 1
244 244 1 0.0000000000000000e+00 8.1817995313075205e+00 9.3482222432902233e+00 1.3701106484451484e+00 1 0 0
407 407 1 0.0000000000000000e+00 1.0513023165634428e+01 7.0046240116300362e+00 2.7186495413676179e+00 0 -1 1
267 267 1 0.0000000000000000e+00 1.1609931833679221e+01 5.8176838779663542e-01 1.0792091555656032e+01 1 0 1
2089 2089 1 0.0000000000000000e+00 4.7657275515380881e+00 8.7227936891427031e+00 1.0128668787627612e+01 0 0 2
1933 1933 1 0.0000000000000000e+00 6.6266228712999702e+00 1.5056373224910182e+00 9.1335120890447072e+00 -1 1 0
2254 2254 1 0.0000000000000000e+00 8.5869739831221050e+00 5.1571969445388932e+00 6.5766246774679269e+00 1 -1 2
811 811 1 0.0000000000000000e+00 1.2219633835914463e+01 5.0954388020395314e+00 5.3829121164119114e+00 1 1 1
278 278 1 0.0000000000000000e+00 9.0161269495715750e+00 2.6775344931349787e+00 9.2042732812051877e+00 -2 -2 1
2733 2733 1 0.0000000000000000e+00 3.4970660393399583e-01 7.8176030582731766e+00 3.0500849925190927e+00 1 0 1
2379 2379 1 0.0000000000000000e+00 1.1577635611363160e+01 1.3664208799913216e+00 2.9790127055261144e+00 0 1 1
201 201 1 0.0000000000000000e+00 1.4052824244602590e+01 1.0883926310905053e+01 6.7184348623128907e+00 1 0 1
2632 2632 1 0.0000000000000000e+00 1.3396262813662892e+01 5.8643062181963019e+00 3.6230455111278703e-01 2 0 1
1978 1978 1 0.0000000000000000e+00 1.0900224900037589e+01 4.1170480570808259e+00 7.6495114316665065e+00 0 -1 0
1104 1104 1 0.0000000000000000e+00 5.4722470375837169e+00 1.0232955248827192e+01 4.8029407802782718e+00 -2 1 1
349 349 1 0.0000000000000000e+00 1.1074770241949524e+01 4.0381632797505755e+00 2.9611898746574687e+00 2 1 -1
2422 2422 1 0.0000000000000000e+00 7.9690654899061784e+00 1.5122005535101719e+00 4.9822996711822193e-01 -1 -1 1
2175 2175 1 0.0000000000000000e+00 4.7874677766227727e+00 2.9878377506104523e+00 6.2206739595353282e+00 0 0 0
1639 1639 1 0.0000000000000000e+00 1.2788188627730637e+01 8.9024993060419551e+00 9.1171365929457515e+00 1 1 0
1131 1131 1 0.0000000000000000e+00 1.3053839774282878e+00 3.5488397450195865e+00 5.9858155563587401e+00 0 1 0
524 524 1 0.0000000000000000e+00 1.2700690637258383e+01 8.3521703482154876e+00 2.5588004255086233e-01 0 1 0
1652 1652 1 0.0000000000000000e+00 9.8547218477348473e+00 8.5275650428234755e+00 9.3173629686638861e+00 -1 1 0
1503 1503 1 0.0000000000000000e+00 1.2858542245164662e+01 1.1045746941611231e+01 7.4312599803821167e-01 -1 1 1
1636 1636 1 0.0000000000000000e+00 2.5073695947306720e+00 7.2679772955432291e+00 2.2465766432084422e-02 0 0 1
1206 1206 1 0.0000000000000000e+00 1.7857475608214881e+00 3.1560470063910211e+00 1.4234992047394373e+01 -1 -1 1
927 927 1 0.0000000000000000e+00 1.4258663420827402e+01 4.6117014551351074e+00 1.7902883206894085e+01 -1 -1 -1
1192 1192 1 0.0000000000000000e+00 5.0371184896113128e+00 7.0470682844264934e+00 1.6065737006285790e+01 1 -1 0
2281 2281 1 0.0000000000000000e+00 1.2955224083651972e+01 1.0527773765134794e+01 1.9700335773844202e+01 0 -1 1
1076 1076 1 0.0000000000000000e+00 1.0930063736657129e+01 6.7070824574297365e+00 1.2592379544157776e+01 1 -1 -1
2683 2683 1 0.0000000000000000e+00 4.6247069007957959e+00 3.0841634878813369e+00 1.2922214142640978e+01 0 0 1
1392 1392 1 0.0000000000000000e+00 6.4490401282549970e+00 6.5769183260101354e+00 1.8920514825905261e+01 1 1 -1
598 598 1 0.0000000000000000e+00 5.1609298868255911e+00 2.5277815532126824e+00 1.7516754518000440e+01 0 1 -2
1502 1502 1 0.0000000000000000e+00 7.8521806822865017e+00 3.4339749769475856e+00 1.1723490939050711e+01 1 1 1
1031 1031 1 0.0000000000000000e+00 1.8957550855515817e+00 1.2163776351355736e-01 1.9539118904288994e+01 1 0 0
1295 1295 1 0.0000000000000000e+00 5.0381822258401963e+00 7.8354130484768802e-01 1.1434640430143489e+01 0 2 0
808 808 1 0.0000000000000000e+00 1.1931544810857693e+01 4.7371626871453980e+00 2.2203847701122989e+01 1 0 1
1762 1762 1 0.0000000000000000e+00 5.1362405684618304e+00 8.8718497210341081e+00 2.0367281567622804e+01 1 0 0
417 417 1 0.0000000000000000e+00 7.5346291900660454e+00 5.8671452980543322e+00 1.6161122281575622e+01 -1 1 0
438 438 1 0.0000000000000000e+00 4.3242207063228104e+00 6.4489525936954539e+00 2.1608519780365594e+01 0 0 1
2684 2684 1 0.0000000000000000e+00 3.3031048341165370e-01 7.3676153082620370e+00 2.0673780077945739e+01 -1 1 0
2591 2591 1 0.0000000000000000e+00 9.0071474524045705e+00 7.4734315570913719e+00 1.8140537119246151e+01 0 1 1
2690 2690 1 0.0000000000000000e+00 3.5371046237479087e-01 8.4080945027289093e+00 1.1428740229277038e+01 1 1 0
632 632 1 0.0000000000000000e+00 7.8423604555447712e-01 5.2521815232470714e-01 1.3413477974764259e+01 0 2 1
166 166 1 0.0000000000000000e+00 6.6510845474292033e+00 7.3686815017950638e+00 1.4044864972338690e+01 1 1 0
2440 2440 1 0.0000000000000000e+00 1.1812760474243635e+00 9.8533091323113702e+00 1.7176680242409493e+01 0 0 0
1259 1259 1 0.0000000000000000e+00 1.0462439251749467e+01 4.7015562502780313e+00 1.4353869420169362e+01 0 -2 0
946 946 1 0.0000000000000000e+00 6.4854248778037977e+00 2.4508012040083944e+00 1.5162288101987329e+01 1 1 0
658 658 1 0.0000000000000000e+00 1.2662762718333113e+01 3.8421238202917380e+00 1.5862754050559357e+01 0 0 0
1689 1689 1 0.0000000000000000e+00 5.4010817482655389e+00 9.5437007952407971e+00 1.5008414654752327e+01 -1 0 0
1700 1700 1 0.0000000000000000e+00 7.3252978551948571e+00 9.8691837850246955e-01 1.3233478170890564e+01 2 1 0
571 571 1 0.0000000000000000e+00 7.7107410138006456e+00 9.8321044990362125e+00 1.3389408409464448e+01 2 0 0
460 460 1 0.0000000000000000e+00 1.2574015850811751e+01 2.6992849905108667e+00 1.2262637207158884e+01 0 1 -1
213 213 1 0.0000000000000000e+00 3.2108141852439589e+00 3.6243564324139901e+00 1.8901481038211205e+01 0 0 -1
2079 2079 1 0.0000000000000000e+00 1.4751366505992902e+01 9.3002883671226346e+00 2.1251689069458838e+01 1 1 1
1916 1916 1 0.0000000000000000e+00 1.1668815530285677e+01 3.1951076905308406e+00 1.9907466251587604e+01 -2 1 -1
847 847 1 0.0000000000000000e+00 1.0811180293381298e+01 6.3160721494270673e+00 1.9963826853379643e+01 1 1 0
1460 1460 1 0.0000000000000000e+00 6.2994592449433229e-01 2.6525185353410938e+00 2.0413598739941282e+01 0 1 1
2296 2296 1 0.0000000000000000e+00 7.6986749456186825e+00 8.4409982655741533e+00 2.0476455678912775e+01 0 1 0
472 472 1 0.0000000000000000e+00 6.9867707327648167e+00 6.0045478480370260e+00 1.1632308092007751e+01 -1 -2 0
2423 2423 1 0.0000000000000000e+00 9.2412227745855802e+00 8.4581492493633537e+00 1.5706332941089448e+01 -2 0 -1
133 133 1 0.0000000000000000e+00 1.1704341693624251e+01 2.1516522469258559e-01 1.8541392067054211e+01 -1 0 1
369 369 1 0.0000000000000000e+00 4.3305114213887910e+00 6.5039395254974428e+00 1.2930357825021842e+01 1 0 1
1704 1704 1 0.0000000000000000e+00 1.0455933444701477e+01 1.1012903541077915e+01 1.8740063019700465e+01 1 -3 0
2777 2777 1 0.0000000000000000e+00 1.2711562543554793e+01 1.3108777529293019e+00 1.4719767664288780e+01 1 1 1
2253 2253 1 0.0000000000000000e+00 1.2367901381269768e+01 9.0684381876489635e+00 1.2740875122221716e+01 1 1 -1
2414 2414 1 0.0000000000000000e+00 7.3128866164329622e+00 1.8118878325617049e+00 1.9311987978225691e+01 0 1 0
899 899 1 0.0000000000000000e+00 8.8359120381034373e+00 4.3823892676418312e+00 1.9691445109824652e+01 1 1 -1
2997 2997 1 0.0000000000000000e+00 1.3108640890544573e+01 7.5976302700548137e+00 1.5053656404458481e+01 0 2 0
203 203 1 0.0000000000000000e+00 2.6862331233446581e+00 8.7843357645842275e+00 1.3191475412135016e+01 0 2 -1
2113 2113 1 0.0000000000000000e+00 4.9348961612288331e+00 3.5101540215462248e+00 2.1036047877793553e+01 0 0 0
780 780 1 0.0000000000000000e+00 1.1161661106836640e+01 8.3807176204746501e+00 2.1796720475361365e+01 1 0 1
2545 2545 1 0.0000000000000000e+00 6.8735776264627602e-01 5.7620768152749005e+00 1.3952948215994027e+01 -1 2 0
1246 1246 1 0.0000000000000000e+00 9.8836152097441001e+00 3.1833030290284725e+00 2.2066548424051934e+01 0 0 1
1323 1323 1 0.0000000000000000e+00 1.1500443098595362e+01 8.3881907184221571e+00 1.8224519564660632e+01 -2 -1 -1
841 841 1 0.0000000000000000e+00 1.4135016807086213e+01 1.0088253334995214e+01 1.4569973813887110e+01 0 1 1
1205 1205 1 0.0000000000000000e+00 1.4672249989041099e+01 5.6283633169377296e+00 1.3894876985253456e+01 -2 1 1
415 415 1 0.0000000000000000e+00 1.4395964425326431e+01 6.7858764373473264e+00 1.9346104190474275e+01 0 1 1
1146 1146 1 0.0000000000000000e+00 1.0505829225025144e+01 3.7025341559399876e+00 1.7726127049790083e+01 0 0 0
953 953 1 0.0000000000000000e+00 2.5044299791539619e+00 6.5903221264938656e+00 1.7087439605790408e+01 0 0 0
2347 2347 1 0.0000000000000000e+00 3.4392533433541947e+00 1.0232411306599181e+01 1.8903833168699013e+01 1 1 1
900 900 1 0.0000000000000000e+00 6.2831751724310614e+00 1.0870195799837994e+01 1.1441727744862254e+01 0 1 0
468 468 1 0.0000000000000000e+00 1.1961278489417586e+01 6.3531370181331392e-01 2.1266878389553327e+01 1 0 1
2496 2496 1 0.0000000000000000e+00 9.6045139492942475e+00 2.1148534225699449e+00 1.4533774059241361e+01 0 2 -1
976 976 1 0.0000000000000000e+00 9.3044704996737337e+00 4.8450161630281285e-01 2.0599402998163487e+01 0 0 0
475 475 1 0.0000000000000000e+00 1.2911815203666601e+00 8.1644333640259126e-01 1.6186884537213796e+01 0 1 0
689 689 1 0.0000000000000000e+00 4.7062311595194268e+00 8.2814323084374519e-01 2.1971700136526124e+01 0 0 1
2483 2483 1 0.0000000000000000e+00 1.4022787526022988e+01 4.9338480281529078e+00 1.1384775076897197e+01 0 1 0
1984 1984 1 0.0000000000000000e+00 9.1518997848251047e+00 1.0854160696362278e+01 2.1087891896246560e+01 1 2 1
2093 2093 1 0.0000000000000000e+00 1.1450008772956275e+01 1.1038617182362598e+01 1.6097611486524137e+01 1 1 1
954 954 1 0.0000000000000000e+00 1.4906688833734322e+01 5.3585004035833117e-01 2.1907254193148557e+01 1 -1 0
354 354 1 0.0000000000000000e+00 1.7453184931443766e+00 4.9938295700943938e+00 3.1317738602062011e+01 1 0 -1
2910 2910 1 0.0000000000000000e+00 7.0899256189536066e+00 6.1694738394984121e+00 2.9460264816697464e+01 0 1 0
935 935 1 0.0000000000000000e+00 5.5539009314242946e+00 1.0011141111893119e+01 3.2206142543877029e+01 0 0 0
2231 2231 1 0.0000000000000000e+00 1.4788689175681300e+01 6.5643505675405862e+00 2.9232795322733516e+01 0 2 0
2976 2976 1 0.0000000000000000e+00 6.9366552496059217e+00 7.5449721115108064e+00 2.2832651219754428e+01 0 1 1
1983 1983 1 0.0000000000000000e+00 1.4118313332887380e+00 1.0906962611214860e+01 2.6242297106777581e+01 1 1 0
2899 2899 1 0.0000000000000000e+00 4.8463674573801461e+00 5.2194584875934922e+00 2.7275182531176007e+01 2 0 0
830 830 1 0.0000000000000000e+00 9.6167322391651311e+00 3.5919663359539905e-01 2.7033312210987987e+01 1 0 0
975 975 1 0.0000000000000000e+00 2.8739771504958473e+00 6.9016383676103938e+00 2.8189603037368048e+01 1 0 1
1170 1170 1 0.0000000000000000e+00 1.0100112527160128e+00 4.7467236158579178e+00 2.3975258775474376e+01 1 1 0
907 907 1 0.0000000000000000e+00 1.3251094293082756e+01 1.7449684998040776e-01 3.1713066280474781e+01 -1 2 -1
2457 2457 1 0.0000000000000000e+00 1.0834783761895540e+01 1.0915164557077073e+01 2.5518423749238785e+01 -1 2 1
1421 1421 1 0.0000000000000000e+00 5.0921843563674178e+00 7.0742830712831228e+00 3.1057692124698757e+01 0 3 -1
1581 1581 1 0.0000000000000000e+00 3.0107295678330734e+00 1.9495109841962793e-01 3.1243697442712811e+01 0 2 1
1834 1834 1 0.0000000000000000e+00 1.4244611149064061e+01 2.0689059856947845e+00 2.6582198014535273e+01 0 -1 -1
2621 2621 1 0.0000000000000000e+00 3.6052733247258999e+00 1.0976007405492207e+00 2.5272268377325663e+01 0 -1 -1
94 94 1 0.0000000000000000e+00 6.1182830833539166e+00 2.9313368053261528e+00 3.3125206474025696e+01 0 0 1
618 618 1 0.0000000000000000e+00 8.9363684000042483e+00 9.1704021364540829e+00 2.9655007350222768e+01 0 0 1
519 519 1 0.0000000000000000e+00 1.3857709288949339e+01 5.9436291843410380e+00 2.3819459416173540e+01 1 0 -1
1179 1179 1 0.0000000000000000e+00 2.2971038792730187e+00 5.0113536642402181e+00 2.6250225836923633e+01 0 0 1
585 585 1 0.0000000000000000e+00 1.3202214875296033e+01 4.5392912360964877e+00 2.7732883228645992e+01 1 0 -1
968 968 1 0.0000000000000000e+00 3.1713671914633976e+00 8.6766477188998632e+00 3.2013302283581240e+01 0 0 1
2065 2065 1 0.0000000000000000e+00 5.7408851629095814e+00 8.3884237476073875e-01 3.1261214841182870e+01 1 1 -1
2647 2647 1 0.0000000000000000e+00 3.1242751370945325e+00 8.9162385424866990e+00 2.5350172053653502e+01 1 0 0
687 687 1 0.0000000000000000e+00 1.8596892295413261e+00 1.0198710448026635e+01 2.9611057858882077e+01 -1 0 0
1665 1665 1 0.0000000000000000e+00 3.3023785739031558e-01 2.7674517445708977e+00 2.6929071386077723e+01 1 0 0
1678 1678 1 0.0000000000000000e+00 7.4547496694052802e+00 1.3649542908868895e+00 2.8455235905110673e+01 1 0 0
2054 2054 1 0.0000000000000000e+00 1.0875299902789677e+00 7.4234285675397489e+00 3.0045817558598262e+01 0 -2 -2
2737 2737 1 0.0000000000000000e+00 3.8443668651269931e+00 2.9806269179919025e+00 2.3476892236884932e+01 0 0 -1
2767 2767 1 0.0000000000000000e+00 1.2442461400285856e+01 1.3571598741614355e+00 2.4574860659275274e+01 3 1 -1
2385 2385 1 0.0000000000000000e+00 1.9547458052104314e+00 3.3979984423094627e+00 2.9185707972622684e+01 0 0 0
1292 1292 1 0.0000000000000000e+00 6.2056175045787532e+00 1.0044623420432520e+01 2.3680045775831804e+01 0 1 0
987 987 1 0.0000000000000000e+00 7.8597792154571788e+00 7.4117401708696109e+00 3.1564180371066772e+01 0 0 1
1430 1430 1 0.0000000000000000e+00 4.8833364176393257e+00 2.7902445165635603e+00 2.8815782714276470e+01 1 0 1
2825 2825 1 0.0000000000000000e+00 7.9095039486301228e+00 2.2730230539280645e+00 2.3806444597895176e+01 -1 1 1
590 590 1 0.0000000000000000e+00 2.3152344881659426e+00 1.0899414521814783e+00 2.7588583438054496e+01 -1 0 0
158 158 1 0.0000000000000000e+00 6.7597880339415317e+00 3.2541946412146778e+00 2.6443841569895127e+01 0 -1 -1
309 309 1 0.0000000000000000e+00 1.1611913646707595e+01 9.2636415379372306e+00 3.0660185025469289e+01 -1 0 1
2186 2186 1 0.0000000000000000e+00 1.2607565890382253e+01 5.7609097546976731e+00 3.0743122091076316e+01 0 2 0
2622 2622 1 0.0000000000000000e+00 1.0703775430005116e+01 6.6460052755562433e+00 2.6397438794227398e+01 0 1 0
889 889 1 0.0000000000000000e+00 9.1737812524022733e+00 9.4310384745111779e+00 2.3512626972448764e+01 -1 -1 1
2934 2934 1 0.0000000000000000e+00 5.0545518980175004e+00 9.0858058063784508e+00 2.7340147354048643e+01 -1 0 -1
1388 1388 1 0.0000000000000000e+00 8.9295900613261754e+00 4.5837351463703051e+00 3.1487169449309548e+01 0 2 0
535 535 1 0.0000000000000000e+00 8.1822082871186943e+00 7.5743460268538447e+00 2.5193960934956028e+01 -1 0 1
246 246 1 0.0000000000000000e+00 1.3871415848383823e+01 7.9987901854931849e+00 3.1745562760266811e+01 0 1 0
1546 1546 1 0.0000000000000000e+00 1.0649743925556749e+01 3.2888774767807685e+00 2.5402437126832822e+01 0 2 2
1233 1233 1 0.0000000000000000e+00 1.0829353557029478e+01 1.0986645286805985e+01 2.8388252024755605e+01 -1 1 -2
2479 2479 1 0.0000000000000000e+00 1.0284064220134185e+01 6.3515560498901387e+00 2.3791031520239933e+01 1 0 0
12 12 1 0.0000000000000000e+00 4.6266439470038145e+00 4.3650179642468760e+00 3.1148218476413621e+01 0 1 0
2301 2301 1 0.0000000000000000e+00 9.1175793421105205e+00 3.1971997581964371e+00 2.7681832210667974e+01 0 1 1
15 15 1 0.0000000000000000e+00 9.9552722234793851e+00 5.4926948620083884e+00 2.8937634773828758e+01 -2 0 1
2339 2339 1 0.0000000000000000e+00 1.3721678288219890e+01 1.0415522619346575e+01 2.8729573915231459e+01 1 -2 0
63 63 1 0.0000000000000000e+00 1.0630668463525478e+01 2.9997379958617598e+00 2.9941746826950659e+01 1 1 1
1417 1417 1 0.0000000000000000e+00 7.4607229608474190e+00 4.7241849136854546e+00 2.2633411891914950e+01 2 1 1
2389 2389 1 0.0000000000000000e+00 1.2165118808471600e+01 9.5558323410429225e+00 3.3386032062296195e+01 1 -1 0
1707 1707 1 0.0000000000000000e+00 6.4573369308403317e+00 5.4941437540066573e+00 2.5113722965172837e+01 1 1 -2
2372 2372 1 0.0000000000000000e+00 2.6639427040586114e+00 8.5362269539294005e+00 2.2764447403415595e+01 0 1 2
2318 2318 1 0.0000000000000000e+00 1.2293821689852729e+01 8.5660137437125439e+00 2.7556375010518419e+01 0 -1 -2
1565 1565 1 0.0000000000000000e+00 6.2769734078346708e+00 9.8444539275687060e+00 2.9486410594931030e+01 1 2 0
1027 1027 1 0.0000000000000000e+00 1.0802206150931722e+01 1.2395136402375315e+00 3.1782575923245979e+01 0 2 -1
2137 2137 1 0.0000000000000000e+00 1.3706001475173169e+01 8.4930157361165382e+00 2.5135507122879282e+01 1 3 0
488 488 1 0.0000000000000000e+00 3.7221724721521725e+00 1.1166565429305956e+01 2.3795392422764184e+01 2 1 -1
2679 2679 1 0.0000000000000000e+00 3.8268160616332669e-01 7.6788825644195731e+00 2.4661161169797374e+01 0 1 1
457 457 1 0.0000000000000000e+00 1.4393371855761110e+01 1.0763647230282503e+01 2.3809117090136674e+01 0 1 -1
1407 1407 1 0.0000000000000000e+00 4.8935428549086328e+00 1.9662447113773754e-01 2.8113479619764647e+01 1 0 0
789 789 1 0.0000000000000000e+00 1.3484546674548222e+01 5.4016278722263866e+00 3.3362795640347926e+01 0 1 0
1207 1207 1 0.0000000000000000e+00 1.8395272173691537e+00 9.8424590160414009e+00 4.0199647004565605e+01 1 1 -1
173 173 1 0.0000000000000000e+00 1.0648586802263800e+01 3.9017787793337910e+00 4.0836515687269241e+01 0 1 1
1540 1540 1 0.0000000000000000e+00 1.0660837199453958e+01 5.0059635935039655e+00 4.3419072308286680e+01 0 1 -1
589 589 1 0.0000000000000000e+00 1.5851180340562587e+00 9.6648384323455154e+00 3.5913254621192038e+01 -1 0 1
2748 2748 1 0.0000000000000000e+00 5.7875509663480740e+00 7.6701209295957993e+00 4.2593968921945404e+01 -1 2 0
663 663 1 0.0000000000000000e+00 8.2151260293480155e-01 2.9176362192197338e+00 3.4182315183244420e+01 -1 0 2
2646 2646 1 0.0000000000000000e+00 8.2857950707078887e-01 1.7074001035947461e+00 4.2734559743758204e+01 1 2 1
338 338 1 0.0000000000000000e+00 6.7815823873896299e+00 3.6900293498769421e+00 4.0559923109731372e+01 1 0 2
1908 1908 1 0.0000000000000000e+00 2.9146222887236561e+00 2.8408039128512605e+00 4.0239897825766725e+01 -1 0 -2
2792 2792 1 0.0000000000000000e+00 7.7955118145080915e+00 5.6588409969068003e+00 4.3153304887749798e+01 1 0 0
977 977 1 0.0000000000000000e+00 1.2919143935615230e+01 1.0288342811615792e-01 4.2290800154257440e+01 0 1 0
1026 1026 1 0.0000000000000000e+00 3.0099684084649017e+00 7.1261238002053293e+00 3.6108122495826606e+01 0 1 0
1142 1142 1 0.0000000000000000e+00 1.1708410465677014e+01 6.5358797238719264e+00 3.8394447662429968e+01 0 1 1
3000 3000 1 0.0000000000000000e+00 8.2492241828929842e+00 2.8260591507738542e+00 3.8425434267575220e+01 0 0 0
781 781 1 0.0000000000000000e+00 7.1819115541782272e+00 7.3602247145167599e-01 3.5655717903524213e+01 1 0 0
2352 2352 1 0.0000000000000000e+00 5.4111417540868887e+00 1.6333958318238651e+00 4.2863203404402640e+01 -1 0 -3
1126 1126 1 0.0000000000000000e+00 3.4707068221761173e+00 4.3477722336850428e+00 4.4043817931896712e+01 0 1 -1
2541 2541 1 0.0000000000000000e+00 1.0181110939482005e+01 9.8988887930071936e+00 4.1064680633683743e+01 0 1 -1
2249 2249 1 0.0000000000000000e+00 5.9622302329427859e+00 4.1573759032884459e+00 3.7242500038601172e+01 2 -1 0
2066 2066 1 0.0000000000000000e+00 8.6711132669136681e+00 3.0328246699133321e+00 3.3896599169643622e+01 0 -1 1
1364 1364 1 0.0000000000000000e+00 1.3364092868745772e+01 1.4294742779830261e+00 3.9114378461918314e+01 0 0 -1
1075 1075 1 0.0000000000000000e+00 1.0263724825756495e+00 8.1435370259574107e+00 3.3725558815314301e+01 0 1 -1
272 272 1 0.0000000000000000e+00 1.3464707762636509e+01 5.0782593796256554e+00 4.2710102685638397e+01 -1 1 -1
73 73 1 0.0000000000000000e+00 5.7121325537945262e+00 7.9138922247169843e+00 3.5086003624589203e+01 0 0 1
185 185 1 0.0000000000000000e+00 6.0475769692878645e+00 7.8678783949437445e+00 3.9439068763293307e+01 -1 0 0
2131 2131 1 0.0000000000000000e+00 1.3527113678744536e+00 6.2406193074807907e+00 4.1058444363764870e+01 2 0 -2
501 501 1 0.0000000000000000e+00 1.4206327684320849e+01 1.0780865465703702e+01 3.9833892238239393e+01 0 0 0
2540 2540 1 0.0000000000000000e+00 9.5170354440523859e+00 7.9405973510186401e-01 3.7302676176814089e+01 1 0 0
157 157 1 0.0000000000000000e+00 1.2896226915631026e+01 2.6870938064750933e+00 3.3929842411483747e+01 -1 0 1
2876 2876 1 0.0000000000000000e+00 3.6334795467276226e+00 9.2408522133753888e+00 4.3197247016750481e+01 0 -2 0
844 844 1 0.0000000000000000e+00 4.5945551358871812e+00 5.7726544810686455e+00 4.0472336537043098e+01 0 0 -1
1696 1696 1 0.0000000000000000e+00 8.5673361731794788e+00 7.5544719561089160e+00 3.7068577853074544e+01 -1 2 -1
1356 1356 1 0.0000000000000000e+00 2.1804684369600738e+00 6.0463725869056129e+00 3.8437328938908273e+01 -1 0 -1
2842 2842 1 0.0000000000000000e+00 3.2670098325218953e+00 2.1865997843984579e+00 3.3909277956474064e+01 2 0 -1
1037 1037 1 0.0000000000000000e+00 1.3837993402552934e+01 7.4936335021563130e+00 3.5529103771838088e+01 0 2 0
1386 1386 1 0.0000000000000000e+00 1.2725775336331525e+01 8.8709718373954960e+00 4.1918154010206017e+01 1 0 -2
1043 1043 1 0.0000000000000000e+00 9.4493416337572302e+00 5.5903662698722938e+00 3.5398917295753847e+01 -1 0 0
1518 1518 1 0.0000000000000000e+00 2.6089523900734851e-01 3.1586837823626529e-01 3.8689059312362858e+01 0 0 -1
238 238 1 0.0000000000000000e+00 1.2661036828660658e+01 2.9816677924576505e+00 3.6944854750016511e+01 1 1 0
1531 1531 1 0.0000000000000000e+00 5.1150319840048697e+00 9.4030740057411988e-01 4.0079685755610122e+01 0 2 0
2115 2115 1 0.0000000000000000e+00 9.9928510542427524e+00 9.5944075894245149e+00 4.4097364355149203e+01 -2 1 2
759 759 1 0.0000000000000000e+00 8.4352095953879402e+00 6.9168558988610176e+00 3.9963275188891558e+01 1 1 2
324 324 1 0.0000000000000000e+00 7.2055666028841578e+00 1.0807616610873250e+01 3.7062868926150216e+01 0 0 0
538 538 1 0.0000000000000000e+00 6.1848822382684778e+00 1.0395061344221208e+01 4.1815593320221794e+01 1 0 1
1813 1813 1 0.0000000000000000e+00 2.3176181840277996e+00 3.1095117941491984e-01 4.1084525564609713e+01 2 1 -3
1988 1988 1 0.0000000000000000e+00 1.0870648070499181e+01 7.1737939713107082e+00 4.1237088082245961e+01 1 1 1
47 47 1 0.0000000000000000e+00 9.9785554933976712e+00 3.3546164196274963e+00 3.6255532304686788e+01 1 -2 0
1100 1100 1 0.0000000000000000e+00 1.3451611596913960e+01 6.8737809318795504e+00 4.0373126201366908e+01 0 0 -1
2513 2513 1 0.0000000000000000e+00 1.0623808776753219e+01 1.1993519066549647e+00 3.4578576340979097e+01 0 0 0
2565 2565 1 0.0000000000000000e+00 1.1174719073231220e+01 2.0197050936837377e+00 4.4456310961860119e+01 0 1 1
473 473 1 0.0000000000000000e+00 3.6012859256203447e+00 2.8746321761377165e+00 3.6747199098278919e+01 0 0 -1
2890 2890 1 0.0000000000000000e+00 5.1119144781295200e-02 7.5963098169161238e+00 3.7109195121504257e+01 1 0 -3
1887 1887 1 0.0000000000000000e+00 9.7185538722640086e+00 1.2920897162118234e+00 4.0602353418139110e+01 0 -1 -1
769 769 1 0.0000000000000000e+00 1.0577977824045620e+01 9.2647116865882460e+00 3.7779136481755060e+01 0 1 0
662 662 1 0.0000000000000000e+00 1.3874448594497398e+01 5.5119198024150791e+00 3.7376556672784979e+01 0 0 -2
973 973 1 0.0000000000000000e+00 8.5929319953602701e-01 2.2257911250091360e+00 3.6822445983416983e+01 0 -1 0
1769 1769 1 0.0000000000000000e+00 1.4805807122818733e+01 9.4011016644507386e+00 3.3907358549180231e+01 0 1 1
2989 2989 1 0.0000000000000000e+00 6.5491230772624442e+00 5.4318464311314454e+00 3.4230012576050406e+01 0 1 0
600 600 1 0.0000000000000000e+00 3.1277383428163446e+00 1.1084088433427500e+01 3.7862670238813863e+01 2 0 0
2503 2503 1 0.0000000000000000e+00 1.2936377813541077e+01 1.0788655244633285e+01 3.7211348356463191e+01 0 0 0
2838 2838 1 0.0000000000000000e+00 1.5779811388006948e-01 1.0697502535324267e+01 4.4290540075401474e+01 1 2 0
1680 1680 1 0.0000000000000000e+00 2.6818012834251688e+00 2.0582118282746364e-01 3.6296153979255031e+01 1 0 0
1077 1077 1 0.0000000000000000e+00 1.0532597776230011e+01 7.3304611824765225e+00 3.3636152684267223e+01 2 0 -1
125 125 1 0.0000000000000000e+00 3.1912799790503188e+00 1.2103918052487845e+01 4.5321497122900229e+00 0 0 0
2264 2264 1 0.0000000000000000e+00 3.8123842952864555e+00 2.1078767768244610e+01 8.8048103918291982e+00 0 -1 2
851 851 1 0.0000000000000000e+00 1.4771476555042182e+00 1.2044906908717014e+01 1.0512979622156935e+01 0 0 0
1516 1516 1 0.0000000000000000e+00 1.4084429771690974e+01 2.2375902655003397e+01 2.6028270847009050e+00 0 2 2
711 711 1 0.0000000000000000e+00 5.9406232245088377e+00 2.1123964616783375e+01 4.6943860369846435e+00 2 0 0
252 252 1 0.0000000000000000e+00 7.4825958881854149e+00 1.7690153122324585e+01 3.6613242311076073e+00 0 -1 0
2555 2555 1 0.0000000000000000e+00 7.8007357146909175e+00 1.5323910894308696e+01 4.9946775774308163e+00 1 1 1
2160 2160 1 0.0000000000000000e+00 1.3339159726963802e+01 2.1096586003875178e+01 2.2902806552586349e-01 1 -1 1
1873 1873 1 0.0000000000000000e+00 1.7234853691639005e+00 1.8819639904652284e+01 4.0139937036937487e+00 0 0 1
526 526 1 0.0000000000000000e+00 2.1156425453570895e+00 1.5377769837918079e+01 6.4951963347397994e+00 -1 -1 1
513 513 1 0.0000000000000000e+00 4.0216999302835248e+00 1.4678364771787832e+01 4.6037464487698720e+00 2 0 1
2738 2738 1 0.0000000000000000e+00 6.3331696863202023e+00 1.3865411682054912e+01 1.9892551035040132e-02 0 0 1
994 994 1 0.0000000000000000e+00 1.8240080482383927e+00 1.8559041518425630e+01 9.7945278870504904e-01 0 0 2
2875 2875 1 0.0000000000000000e+00 1.0050554499261249e+01 1.2761769225247543e+01 3.5835830521021634e+00 1 1 1